BEGIN_CFG
Size
54
SuperCell
9.981000 0.000000 0.000000
0.000000 9.981000 0.000000
0.000000 0.000000 9.981000
AtomData: id type cartes_x cartes_y cartes_z fx fy fz
  1 3 0.049671 -0.013826 0.064769 -0.907186 -0.060647 0.138252
  2 3 1.815803 1.640085 1.640086 -1.188404 0.005226 -0.405885
  3 3 3.484921 0.076743 -0.046947 -1.130137 -1.347989 0.555262
  4 3 5.044756 1.617158 1.616927 -0.197386 0.303915 0.109214
  5 3 6.678196 -0.191328 -0.172492 -0.550194 0.737342 1.743222
  6 3 8.261271 1.562217 1.694925 -0.217009 0.364609 -0.124538
  7 3 -0.090802 3.185770 0.146565 0.630149 0.874397 -0.437917
  8 3 1.640922 4.997253 1.521025 0.861637 0.140234 0.631395
  9 3 3.272562 3.338092 -0.115099 0.823098 0.252065 1.629040
 10 3 5.028070 4.930436 1.634331 -1.098782 0.285400 0.365528
 11 3 6.593829 3.512228 -0.001350 0.535886 -2.202794 0.172015
 12 3 8.211729 5.072754 1.541416 1.187494 -0.717349 1.571238
 13 3 0.020886 6.458033 -0.132819 0.150653 1.757945 0.915194
 14 3 1.683186 8.391347 1.680637 0.184041 -1.117446 -0.970146
 15 3 3.315435 6.623890 -0.147852 0.173370 0.038318 0.480085
 16 3 4.918516 8.271436 1.769212 0.869735 0.144576 -1.067099
 17 3 6.688362 6.477696 0.032408 -0.584603 1.797927 -0.791418
 18 3 8.278992 8.249808 1.724668 0.284263 0.398016 -0.554798
 19 3 0.103100 0.093128 3.243078 -0.882438 -0.478177 1.013067
 20 3 1.632579 1.696626 5.088055 0.245438 -0.015050 -1.386500
 21 3 3.279083 -0.018566 3.216367 0.777114 0.466636 1.447428
 22 3 4.870879 1.744753 5.126124 0.847090 -1.124265 -0.754366
 23 3 6.646799 0.100353 3.363164 -0.277002 -0.771773 0.245072
 24 3 8.252988 1.699640 5.144304 0.615798 -0.404113 -1.534823
 25 3 -0.003583 3.483464 3.065025 -0.201077 -0.780290 1.717137
 26 3 1.745690 4.999205 4.960599 -0.818480 0.297903 -0.615687
 27 3 3.336176 3.128243 3.305033 0.001276 1.846975 0.393958
 28 3 5.026211 5.138289 4.938673 -0.183552 -1.523637 0.602919
 29 3 6.573151 3.276824 3.418540 0.393412 0.249428 -0.360718
 30 3 8.350375 4.937524 5.041827 -0.042197 0.221363 -0.743783
 31 3 0.009708 6.750864 3.256795 -0.139680 -1.086541 0.285214
 32 3 1.630734 8.278289 4.844149 0.617826 0.731887 0.707575
 33 3 3.356612 6.680106 3.327511 -0.617216 -0.357934 -0.794189
 34 3 4.967041 8.175963 4.948435 0.406506 1.414692 0.122293
 35 3 6.619729 6.573772 3.310871 0.602376 0.775094 0.100115
 36 3 8.357905 8.506119 5.007958 -0.288510 -1.311858 -1.148007
 37 3 0.025755 -0.007445 6.462123 0.035666 0.176991 2.100856
 38 3 1.660849 1.669523 8.563824 -0.180975 -0.444539 -2.471183
 39 3 3.307764 0.030155 6.650529 -0.322847 -0.378676 0.215103
 40 3 4.873632 1.777782 8.392693 1.158152 -0.624255 -1.233869
 41 3 6.733103 -0.090939 6.794279 -0.981856 0.871125 -0.310132
 42 3 8.177315 1.722186 8.536546 1.030991 -0.995285 -1.102029
 43 3 -0.099054 3.270370 6.663965 1.070999 0.053086 0.399594
 44 3 1.613152 4.835434 8.324356 -0.172326 0.966169 -0.896415
 45 3 3.220770 3.374359 6.562058 0.759832 -0.139363 1.069008
 46 3 5.145493 4.912175 8.285294 -1.345908 0.812392 -0.869302
 47 3 6.735352 3.203914 6.676746 -1.062030 1.488912 0.208388
 48 3 8.448214 4.829752 8.335963 -1.142463 0.933812 -0.811516
 49 3 0.025988 6.732182 6.530305 -0.119102 -0.740483 0.708570
 50 3 1.531454 8.369694 8.347198 1.109123 -0.090918 -0.679325
 51 3 3.352049 6.688645 6.585998 -0.251230 -0.297488 0.666642
 52 3 5.013725 8.346807 8.246065 -0.217508 -1.003524 -0.101706
 53 3 6.840577 6.701383 6.534870 -0.752500 -0.298066 0.802890
 54 3 8.383155 8.220032 8.396208 0.500677 -0.093974 -0.950924
Energy
-635.011383690000
PlusStress: xx yy zz yz xz xy
0.002052 0.001419 0.004645 -0.001101 -0.002086 0.000132
END_CFG
BEGIN_CFG
Size
54
SuperCell
9.983250 0.000000 0.000000
0.000000 9.983250 0.000000
0.000000 0.000000 9.983250
AtomData: id type cartes_x cartes_y cartes_z fx fy fz
  1 3 0.049671 -0.013826 0.064769 -0.586595 0.000299 0.411683
  2 3 1.816178 1.640460 1.640461 -1.115605 0.034235 -0.401297
  3 2 3.485671 0.076743 -0.046947 -0.653665 -0.966494 0.289962
  4 3 5.045881 1.617533 1.617302 -0.126154 0.116928 0.026613
  5 3 6.679696 -0.191328 -0.172492 -0.520474 0.530055 1.245884
  6 3 8.263146 1.562592 1.695300 -0.319120 0.226152 -0.319415
  7 2 -0.090802 3.186520 0.146565 0.449883 0.729696 0.149559
  8 3 1.641297 4.998378 1.521400 0.644830 -0.066362 0.143650
  9 3 3.273312 3.338842 -0.115099 0.695436 0.207331 1.545365
 10 3 5.029195 4.931561 1.634706 -0.894523 0.264745 0.300341
 11 3 6.595329 3.512978 -0.001350 0.623656 -2.012802 0.199243
 12 3 8.213604 5.073879 1.541791 0.992026 -0.383608 1.169313
 13 2 0.020886 6.459533 -0.132819 0.212341 0.887227 0.498880
 14 3 1.683561 8.393222 1.681012 0.266903 -0.945653 -0.802262
 15 3 3.316185 6.625390 -0.147852 -0.150067 0.131111 0.268378
 16 2 4.919641 8.273311 1.769587 0.477416 0.176045 -0.498009
 17 3 6.689862 6.479196 0.032408 -0.353029 1.691905 -0.613738
 18 3 8.280867 8.251683 1.725043 0.219031 0.409494 -0.568171
 19 3 0.103100 0.093128 3.243828 -1.101729 -0.568068 1.138146
 20 3 1.632954 1.697001 5.089180 0.183629 0.076932 -1.062494
 21 3 3.279833 -0.018566 3.217117 0.908081 0.267380 1.176987
 22 3 4.872004 1.745128 5.127249 0.691744 -0.924586 -0.569232
 23 2 6.648299 0.100353 3.363914 -0.028241 -0.356941 0.218531
 24 3 8.254863 1.700015 5.145429 0.566098 -0.481025 -1.258164
 25 2 -0.003583 3.484214 3.065775 -0.213721 -0.395371 0.895663
 26 2 1.746065 5.000330 4.961724 -0.414105 0.106585 -0.381781
 27 3 3.336926 3.128993 3.305783 -0.027707 1.638199 0.306592
 28 3 5.027336 5.139414 4.939798 -0.273071 -0.946823 0.366088
 29 3 6.574651 3.277574 3.419290 0.589088 0.287626 -0.400722
 30 3 8.352250 4.938649 5.042952 -0.172936 -0.292289 -0.374539
 31 2 0.009708 6.752364 3.257545 -0.171428 -0.698121 0.169313
 32 3 1.631109 8.280164 4.845274 0.260249 0.445313 0.428127
 33 2 3.357362 6.681606 3.328261 -0.384022 -0.057116 -0.396824
 34 3 4.968166 8.177838 4.949560 0.323157 0.702550 0.039091
 35 2 6.621229 6.575272 3.311621 0.335955 0.347774 0.120413
 36 3 8.359780 8.507994 5.009083 -0.042344 -0.520602 -0.739800
 37 2 0.025755 -0.007445 6.463623 0.237628 -0.171909 1.118662
 38 3 1.661224 1.669898 8.565699 -0.141181 -0.533563 -2.171615
 39 3 3.308514 0.030155 6.652029 -0.465106 -0.500763 0.375643
 40 3 4.874757 1.778157 8.394568 1.030639 -0.711522 -1.128374
 41 3 6.734603 -0.090939 6.795779 -0.854448 0.572389 -0.361850
 42 2 8.179190 1.722561 8.538421 0.604209 -0.416603 -0.499185
 43 3 -0.099054 3.271120 6.665465 0.901080 -0.004478 0.359893
 44 3 1.613527 4.836559 8.326231 -0.240183 0.685897 -0.512461
 45 3 3.221520 3.375109 6.563558 0.682309 0.069309 0.942224
 46 3 5.146618 4.913300 8.287169 -1.244571 0.564708 -0.706902
 47 3 6.736852 3.204664 6.678246 -0.858833 1.335688 0.210748
 48 3 8.450089 4.830877 8.337838 -0.858243 0.652695 -0.511108
 49 2 0.025988 6.733682 6.531805 -0.222130 -0.298269 0.338623
 50 3 1.531829 8.371569 8.349073 0.561764 0.154022 -0.371601
 51 2 3.352799 6.690145 6.587498 -0.134089 -0.112990 0.359062
 52 3 5.014850 8.348682 8.247940 -0.067687 -0.776664 0.121163
 53 2 6.842077 6.702883 6.536370 -0.367520 0.008839 0.175348
 54 2 8.385030 8.221907 8.398083 0.545375 -0.178506 -0.459639
Energy
-567.815619300000
PlusStress: xx yy zz yz xz xy
0.024015 0.023924 0.024944 -0.001568 -0.002281 -0.000777
END_CFG
BEGIN_CFG
Size
54
SuperCell
9.985500 0.000000 0.000000
0.000000 9.985500 0.000000
0.000000 0.000000 9.985500
AtomData: id type cartes_x cartes_y cartes_z fx fy fz
  1 3 0.049671 -0.013826 0.064769 -0.857492 -0.096002 0.279674
  2 2 1.816553 1.640835 1.640836 -0.485181 0.002653 -0.449485
  3 3 3.486421 0.076743 -0.046947 -0.999031 -1.176625 0.514613
  4 3 5.047006 1.617908 1.617677 -0.076709 0.109695 -0.024456
  5 3 6.681196 -0.191328 -0.172492 -0.489714 0.635255 1.163532
  6 3 8.265021 1.562967 1.695675 -0.329377 0.009328 -0.240959
  7 3 -0.090802 3.187270 0.146565 0.553927 0.810442 0.192983
  8 3 1.641672 4.999503 1.521775 0.421564 0.061907 0.329432
  9 3 3.274062 3.339592 -0.115099 0.712958 0.427395 1.419291
 10 3 5.030320 4.932686 1.635081 -0.680333 0.412904 0.290608
 11 3 6.596829 3.513728 -0.001350 0.456768 -1.676695 0.014767
 12 2 8.215479 5.075004 1.542166 0.696176 -0.190795 0.993057
 13 2 0.020886 6.461033 -0.132819 0.122579 0.962467 0.378927
 14 3 1.683936 8.395097 1.681387 0.358563 -0.726814 -0.512208
 15 2 3.316935 6.626890 -0.147852 -0.014070 0.012316 0.054638
 16 2 4.920766 8.275186 1.769962 0.516685 0.145482 -0.457697
 17 3 6.691362 6.480696 0.032408 -0.401244 1.317610 -0.607826
 18 2 8.282742 8.253558 1.725418 0.087612 0.213722 -0.375110
 19 2 0.103100 0.093128 3.244578 -0.216764 -0.347040 0.592086
 20 3 1.633329 1.697376 5.090305 0.274034 0.104026 -0.812885
 21 2 3.280583 -0.018566 3.217867 0.420122 0.625469 0.851596
 22 3 4.873129 1.745503 5.128374 0.390241 -0.662311 -0.273658
 23 2 6.649799 0.100353 3.364664 -0.291567 0.146637 0.155917
 24 2 8.256738 1.700390 5.146554 0.186844 -0.314610 -0.810676
 25 2 -0.003583 3.484964 3.066525 -0.016881 -0.335253 0.944542
 26 3 1.746440 5.001455 4.962849 -0.738231 0.353544 -0.621690
 27 2 3.337676 3.129743 3.306533 -0.010913 0.855538 0.433472
 28 3 5.028461 5.140539 4.940923 -0.299581 -0.751272 0.342024
 29 2 6.576151 3.278324 3.420040 0.136787 -0.099666 -0.256187
 30 3 8.354125 4.939774 5.044077 0.015818 0.028562 -0.579149
 31 3 0.009708 6.753864 3.258295 0.046065 -1.059805 0.358808
 32 3 1.631484 8.282039 4.846399 0.167801 0.439143 0.429894
 33 3 3.358112 6.683106 3.329011 -0.546254 -0.300235 -0.375941
 34 2 4.969291 8.179713 4.950685 0.382279 0.397619 0.030078
 35 3 6.622729 6.576772 3.312371 0.448168 0.260255 0.195675
 36 2 8.361655 8.509869 5.010208 -0.042175 -0.487284 -0.747685
 37 3 0.025755 -0.007445 6.465123 0.043356 -0.148371 1.498086
 38 3 1.661599 1.670273 8.567574 -0.204871 -0.355082 -2.070848
 39 3 3.309264 0.030155 6.653529 -0.334313 -0.462888 0.181434
 40 3 4.875882 1.778532 8.396443 1.077644 -0.438053 -1.149610
 41 2 6.736103 -0.090939 6.797279 -0.566843 0.605072 -0.029133
 42 3 8.181065 1.722936 8.540296 0.817206 -0.727241 -0.978967
 43 3 -0.099054 3.271870 6.666965 0.555303 -0.024373 0.267443
 44 2 1.613902 4.837684 8.328106 -0.404407 0.342331 -0.311811
 45 3 3.222270 3.375859 6.565058 0.725166 0.049151 0.667910
 46 2 5.147743 4.914425 8.289044 -0.852592 0.327904 -0.323546
 47 2 6.738352 3.205414 6.679746 -0.262847 0.637481 0.033574
 48 3 8.451964 4.832002 8.339713 -0.860174 0.755807 -0.484891
 49 2 0.025988 6.735182 6.533305 -0.154006 -0.376391 0.452259
 50 3 1.532204 8.373444 8.350948 0.679224 0.305869 -0.366556
 51 2 3.353549 6.691645 6.588998 -0.295328 -0.115927 0.327636
 52 3 5.015975 8.350557 8.249815 -0.076319 -0.547988 -0.060133
 53 2 6.843577 6.704383 6.537870 -0.314183 0.088604 0.230469
 54 3 8.386905 8.223782 8.399958 0.528512 -0.023463 -0.703318
Energy
-543.058202940000
PlusStress: xx yy zz yz xz xy
0.028785 0.029303 0.030966 -0.001392 -0.002461 0.000388
END_CFG
BEGIN_CFG
Size
54
SuperCell
9.987750 0.000000 0.000000
0.000000 9.987750 0.000000
0.000000 0.000000 9.987750
AtomData: id type cartes_x cartes_y cartes_z fx fy fz
  1 3 0.049671 -0.013826 0.064769 -0.545172 0.104833 0.612448
  2 3 1.816928 1.641210 1.641211 -0.749904 0.108201 -0.274385
  3 2 3.487171 0.076743 -0.046947 -0.427361 -0.722227 0.221255
  4 2 5.048131 1.618283 1.618052 0.143698 0.196286 -0.176884
  5 3 6.682696 -0.191328 -0.172492 -0.427450 0.151501 0.967124
  6 2 8.266896 1.563342 1.696050 -0.313501 0.056805 -0.442019
  7 3 -0.090802 3.188020 0.146565 0.542403 0.595307 0.166791
  8 2 1.642047 5.000628 1.522150 0.432611 -0.138525 -0.036027
  9 3 3.274812 3.340342 -0.115099 0.608141 0.200773 0.892245
 10 2 5.031445 4.933811 1.635456 -0.501307 -0.007996 -0.021060
 11 3 6.598329 3.514478 -0.001350 0.314841 -0.643841 0.020603
 12 2 8.217354 5.076129 1.542541 0.416523 -0.142382 0.625239
 13 2 0.020886 6.462533 -0.132819 0.252874 0.804867 0.250939
 14 2 1.684311 8.396972 1.681762 0.259582 -0.506517 -0.459558
 15 3 3.317685 6.628390 -0.147852 0.011801 0.165343 0.070377
 16 2 4.921891 8.277061 1.770337 0.394520 0.085236 -0.600234
 17 2 6.692862 6.482196 0.032408 -0.406284 0.687028 -0.335028
 18 3 8.284617 8.255433 1.725793 0.170329 0.419269 -0.572998
 19 2 0.103100 0.093128 3.245328 -0.234277 -0.321146 0.406206
 20 3 1.633704 1.697751 5.091430 0.279206 0.343627 -0.722688
 21 2 3.281333 -0.018566 3.218617 0.233256 0.366268 0.725120
 22 2 4.874254 1.745878 5.129499 0.238134 -0.295487 0.021256
 23 2 6.651299 0.100353 3.365414 -0.182822 0.026954 0.101977
 24 2 8.258613 1.700765 5.147679 0.259178 -0.256387 -0.825810
 25 2 -0.003583 3.485714 3.067275 0.136133 -0.313104 0.602764
 26 2 1.746815 5.002580 4.963974 -0.546128 0.052888 -0.272004
 27 2 3.338426 3.130493 3.307283 0.032153 0.406758 0.428395
 28 2 5.029586 5.141664 4.942048 0.031278 -0.391802 0.318088
 29 2 6.577651 3.279074 3.420790 0.018974 -0.175697 -0.090923
 30 2 8.356000 4.940899 5.045202 -0.053044 -0.098863 0.004418
 31 2 0.009708 6.755364 3.259045 -0.126387 -0.511321 0.322292
 32 2 1.631859 8.283914 4.847524 0.051898 0.150584 0.087329
 33 2 3.358862 6.684606 3.329761 -0.152681 0.016461 -0.260707
 34 2 4.970416 8.181588 4.951810 0.441498 0.267137 0.131165
 35 2 6.624229 6.578272 3.313121 0.151517 0.228317 0.112216
 36 2 8.363530 8.511744 5.011333 -0.017513 -0.317197 -0.511387
 37 2 0.025755 -0.007445 6.466623 0.371968 0.028837 0.801030
 38 3 1.661974 1.670648 8.569449 -0.165510 -0.354940 -1.696998
 39 2 3.310014 0.030155 6.655029 -0.355562 -0.225868 0.269640
 40 2 4.877007 1.778907 8.398318 0.839449 -0.173465 -0.644448
 41 2 6.737603 -0.090939 6.798779 -0.518215 0.425454 -0.017658
 42 2 8.182940 1.723311 8.542171 0.410079 -0.308590 -0.276243
 43 2 -0.099054 3.272620 6.668465 0.345486 -0.256675 0.239060
 44 2 1.614277 4.838809 8.329981 -0.301137 0.425749 -0.121386
 45 2 3.223020 3.376609 6.566558 0.176466 -0.089342 0.449118
 46 2 5.148868 4.915550 8.290919 -0.685608 0.312579 -0.392172
 47 3 6.739852 3.206164 6.681246 -0.164261 0.500654 0.041572
 48 2 8.453839 4.833127 8.341588 -0.680065 0.449388 -0.442362
 49 3 0.025988 6.736682 6.534805 -0.199169 -0.342834 0.384619
 50 2 1.532579 8.375319 8.352823 0.311458 -0.044755 -0.022141
 51 2 3.354299 6.693145 6.590498 -0.189056 -0.074660 0.397786
 52 3 5.017100 8.352432 8.251690 0.091666 -0.874183 -0.151265
 53 3 6.845077 6.705883 6.539370 -0.327199 0.162007 0.086807
 54 2 8.388780 8.225657 8.401833 0.302494 -0.151308 -0.391493
Energy
-467.987284860000
PlusStress: xx yy zz yz xz xy
0.042695 0.043023 0.041333 -0.000171 -0.002384 0.000218
END_CFG
BEGIN_CFG
Size
54
SuperCell
9.990000 0.000000 0.000000
0.000000 9.990000 0.000000
0.000000 0.000000 9.990000
AtomData: id type cartes_x cartes_y cartes_z fx fy fz
  1 2 0.049671 -0.013826 0.064769 -0.541232 0.312862 0.442540
  2 2 1.817303 1.641585 1.641586 -0.391062 0.147060 -0.499278
  3 2 3.487921 0.076743 -0.046947 -0.329215 -0.572357 0.132689
  4 2 5.049256 1.618658 1.618427 0.260276 0.148306 -0.097386
  5 2 6.684196 -0.191328 -0.172492 -0.346201 0.153975 0.441393
  6 2 8.268771 1.563717 1.696425 -0.457428 0.042813 -0.294736
  7 2 -0.090802 3.188770 0.146565 0.331658 0.218505 0.239772
  8 2 1.642422 5.001753 1.522525 0.318061 -0.092663 0.006410
  9 2 3.275562 3.341092 -0.115099 0.551293 0.344490 0.426313
 10 2 5.032570 4.934936 1.635831 -0.443962 -0.021929 0.249412
 11 2 6.599829 3.515228 -0.001350 0.170645 -0.276675 0.010550
 12 2 8.219229 5.077254 1.542916 0.399288 -0.052358 0.638706
 13 2 0.020886 6.464033 -0.132819 0.212964 0.673374 0.253166
 14 2 1.684686 8.398847 1.682137 0.280266 -0.452409 -0.317139
 15 2 3.318435 6.629890 -0.147852 -0.073481 -0.149120 -0.022772
 16 2 4.923016 8.278936 1.770712 0.295978 0.141868 -0.407008
 17 2 6.694362 6.483696 0.032408 -0.287228 0.431529 -0.252682
 18 2 8.286492 8.257308 1.726168 0.042286 0.222883 -0.336167
 19 2 0.103100 0.093128 3.246078 -0.203668 -0.309647 0.223786
 20 2 1.634079 1.698126 5.092555 0.213859 0.348966 -0.581581
 21 2 3.282083 -0.018566 3.219367 0.288674 0.272097 0.610989
 22 2 4.875379 1.746253 5.130624 0.119405 -0.355090 0.032091
 23 2 6.652799 0.100353 3.366164 -0.292238 0.095564 0.227846
 24 2 8.260488 1.701140 5.148804 0.304894 -0.318492 -0.806633
 25 2 -0.003583 3.486464 3.068025 -0.018871 -0.182224 0.449118
 26 2 1.747190 5.003705 4.965099 -0.532837 -0.059258 -0.304557
 27 2 3.339176 3.131243 3.308033 0.162426 0.433614 0.352913
 28 2 5.030711 5.142789 4.943173 -0.128032 -0.388042 0.248268
 29 2 6.579151 3.279824 3.421540 0.009163 -0.131273 -0.110254
 30 2 8.357875 4.942024 5.046327 0.047796 -0.285611 -0.235492
 31 2 0.009708 6.756864 3.259795 -0.165411 -0.535306 0.235892
 32 2 1.632234 8.285789 4.848649 0.094781 0.175957 -0.002427
 33 2 3.359612 6.686106 3.330511 -0.154400 -0.012623 -0.145704
 34 2 4.971541 8.183463 4.952935 0.380800 0.368046 0.164521
 35 2 6.625729 6.579772 3.313871 0.156626 0.103669 0.111684
 36 2 8.365405 8.513619 5.012458 0.020346 -0.113456 -0.552416
 37 2 0.025755 -0.007445 6.468123 0.210708 0.042531 0.774341
 38 2 1.662349 1.671023 8.571324 0.005796 -0.221228 -0.851894
 39 2 3.310764 0.030155 6.656529 -0.315079 -0.309312 0.287460
 40 2 4.878132 1.779282 8.400193 0.600920 -0.162110 -0.570909
 41 2 6.739103 -0.090939 6.800279 -0.288246 0.456323 -0.018536
 42 2 8.184815 1.723686 8.544046 0.299488 -0.198722 -0.150783
 43 2 -0.099054 3.273370 6.669965 0.179139 -0.274154 0.211468
 44 2 1.614652 4.839934 8.331856 -0.307602 0.166033 -0.099316
 45 2 3.223770 3.377359 6.568058 0.207394 0.117021 0.443964
 46 2 5.149993 4.916675 8.292794 -0.534403 0.303636 -0.371282
 47 2 6.741352 3.206914 6.682746 -0.008827 0.327966 0.110391
 48 2 8.455714 4.834252 8.343463 -0.445254 0.266986 -0.323022
 49 2 0.025988 6.738182 6.536305 -0.137136 -0.209286 0.284514
 50 2 1.532954 8.377194 8.354698 0.195725 0.043575 -0.070723
 51 2 3.355049 6.694645 6.591998 -0.291007 -0.166695 0.313973
 52 2 5.018225 8.354307 8.253565 -0.028554 -0.535877 -0.279713
 53 2 6.846577 6.707383 6.540870 -0.102861 0.127066 0.002734
 54 2 8.390655 8.227532 8.403708 0.463584 -0.100796 -0.224493
Energy
-410.283188760000
PlusStress: xx yy zz yz xz xy
0.044721 0.046237 0.045010 0.000017 -0.000834 0.000094
END_CFG
BEGIN_CFG
Size
54
SuperCell
9.980250 0.000000 0.000000
0.000000 9.980250 0.000000
0.000000 0.000000 9.980250
AtomData: id type cartes_x cartes_y cartes_z fx fy fz
  1 3 0.049671 -0.013826 0.064769 -0.952032 -0.049912 0.148660
  2 3 1.815678 1.639960 1.639961 -1.253106 0.032971 -0.485412
  3 3 3.484671 0.076743 -0.046947 -1.045726 -1.343504 0.651754
  4 1 5.044381 1.617033 1.616802 -0.294784 0.262173 0.165732
  5 3 6.677696 -0.191328 -0.172492 -0.552414 0.805758 1.659309
  6 1 8.260646 1.562092 1.694800 -0.032246 0.339835 0.006931
  7 3 -0.090802 3.185520 0.146565 0.525392 0.777339 -0.279985
  8 3 1.640797 4.996878 1.520900 0.859466 0.136656 0.783556
  9 3 3.272312 3.337842 -0.115099 0.803352 0.343815 1.540561
 10 3 5.027695 4.930061 1.634206 -1.112153 0.383828 0.442141
 11 3 6.593329 3.511978 -0.001350 0.439951 -2.353991 0.068465
 12 3 8.211104 5.072379 1.541291 1.135026 -0.635175 1.434620
 13 3 0.020886 6.457533 -0.132819 0.307459 1.698906 0.879175
 14 3 1.683061 8.390722 1.680512 0.196974 -1.110018 -1.202634
 15 3 3.315185 6.623390 -0.147852 0.112002 0.021333 0.640334
 16 3 4.918141 8.270811 1.769087 0.818929 0.008367 -1.038622
 17 1 6.687862 6.477196 0.032408 -0.634528 1.859092 -0.946855
 18 3 8.278367 8.249183 1.724543 0.250083 0.254044 -0.536438
 19 3 0.103100 0.093128 3.242828 -0.772454 -0.408709 1.014585
 20 1 1.632454 1.696501 5.087680 0.129818 0.087679 -1.295998
 21 3 3.278833 -0.018566 3.216117 0.705755 0.248660 1.485432
 22 3 4.870504 1.744628 5.125749 0.929840 -1.106290 -0.633414
 23 1 6.646299 0.100353 3.362914 -0.210695 -0.840334 0.164812
 24 3 8.252363 1.699515 5.143929 0.548944 -0.494014 -1.446020
 25 3 -0.003583 3.483214 3.064775 -0.218127 -0.735759 1.683973
 26 3 1.745565 4.998830 4.960224 -0.655149 0.294140 -0.760259
 27 1 3.335926 3.127993 3.304783 -0.138365 1.813901 0.355375
 28 3 5.025836 5.137914 4.938298 -0.262968 -1.514630 0.442154
 29 1 6.572651 3.276574 3.418290 0.539179 0.353039 -0.323937
 30 1 8.349750 4.937149 5.041452 -0.001039 0.301466 -0.741390
 31 3 0.009708 6.750364 3.256545 -0.034655 -1.022236 0.336765
 32 1 1.630609 8.277664 4.843774 0.627310 0.667481 0.733946
 33 3 3.356362 6.679606 3.327261 -0.777996 -0.282235 -0.907286
 34 3 4.966666 8.175338 4.948060 0.529213 1.427311 0.122922
 35 1 6.619229 6.573272 3.310621 0.620962 0.844465 0.250712
 36 3 8.357280 8.505494 5.007583 -0.454735 -1.197142 -1.182582
 37 3 0.025755 -0.007445 6.461623 0.105439 0.078338 2.059644
 38 3 1.660724 1.669398 8.563199 -0.182840 -0.594275 -2.319577
 39 3 3.307514 0.030155 6.650029 -0.320906 -0.250052 0.138537
 40 3 4.873257 1.777657 8.392068 1.131912 -0.737560 -1.379089
 41 3 6.732603 -0.090939 6.793779 -1.020939 0.891544 -0.244784
 42 3 8.176690 1.722061 8.535921 0.982466 -0.981126 -1.220992
 43 1 -0.099054 3.270120 6.663465 1.077449 0.153838 0.360105
 44 1 1.613027 4.835059 8.323731 -0.175625 0.966792 -1.037326
 45 3 3.220520 3.374109 6.561558 0.813069 -0.220992 1.183456
 46 1 5.145118 4.911800 8.284669 -1.174801 0.860046 -0.810411
 47 3 6.734852 3.203664 6.676246 -1.272377 1.463307 0.370854
 48 3 8.447589 4.829377 8.335338 -1.070619 0.807964 -0.797529
 49 3 0.025988 6.731682 6.529805 -0.213090 -0.642124 0.648759
 50 3 1.531329 8.369069 8.346573 1.089230 0.009939 -0.594596
 51 1 3.351799 6.688145 6.585498 -0.147544 -0.303515 0.646501
 52 3 5.013350 8.346182 8.245440 -0.242628 -0.915169 -0.113567
 53 3 6.840077 6.700883 6.534370 -0.564571 -0.326944 0.805471
 54 3 8.382530 8.219407 8.395583 0.509890 -0.128324 -0.926536
Energy
-610.450972060000
PlusStress: xx yy zz yz xz xy
-0.002554 -0.003251 0.000348 -0.000728 -0.001818 0.000043
END_CFG
BEGIN_CFG
Size
54
SuperCell
9.981937 0.000000 0.000000
0.000000 9.981937 0.000000
0.000000 0.000000 9.981937
AtomData: id type cartes_x cartes_y cartes_z fx fy fz
  1 3 0.049671 -0.013826 0.064769 -0.729577 -0.183534 0.173992
  2 3 1.815959 1.640241 1.640243 -0.938823 0.121678 -0.666487
  3 1 3.485234 0.076743 -0.046947 -0.837619 -0.975910 0.458737
  4 2 5.045225 1.617314 1.617083 -0.056971 -0.101650 -0.034447
  5 3 6.678821 -0.191328 -0.172492 -0.354127 0.436678 1.270340
  6 3 8.262052 1.562373 1.695081 -0.348554 0.475091 -0.351880
  7 1 -0.090802 3.186082 0.146565 0.496429 0.492672 -0.514778
  8 3 1.641079 4.997722 1.521181 0.496584 -0.109411 0.351018
  9 3 3.272874 3.338405 -0.115099 0.696812 0.540191 1.061767
 10 1 5.028539 4.930905 1.634487 -0.889823 -0.069214 0.280968
 11 3 6.594454 3.512540 -0.001350 0.344132 -1.480691 0.103624
 12 3 8.212510 5.073223 1.541572 1.292431 -0.949471 1.291649
 13 1 0.020886 6.458658 -0.132819 0.223412 1.567440 0.703693
 14 1 1.683342 8.392128 1.680793 0.217635 -0.909933 -0.950580
 15 2 3.315748 6.624515 -0.147852 0.178644 -0.189184 0.218372
 16 3 4.918984 8.272217 1.769368 0.902264 0.492513 -0.682778
 17 3 6.688987 6.478321 0.032408 -0.908619 1.551225 -0.823717
 18 1 8.279773 8.250589 1.724824 0.144595 0.450106 -0.398089
 19 3 0.103100 0.093128 3.243391 -0.757200 -0.337015 1.090316
 20 3 1.632735 1.696783 5.088523 0.352868 -0.161375 -1.217923
 21 3 3.279395 -0.018566 3.216679 0.537922 0.265027 1.322216
 22 3 4.871348 1.744909 5.126593 0.737980 -1.102785 -0.467586
 23 1 6.647424 0.100353 3.363476 -0.228939 -0.506758 0.162126
 24 3 8.253769 1.699796 5.144772 0.494627 -0.268324 -1.357614
 25 3 -0.003583 3.483777 3.065338 -0.047099 -0.704100 1.754720
 26 1 1.745847 4.999673 4.961068 -0.598124 0.248369 -0.543624
 27 3 3.336489 3.128556 3.305345 -0.002587 1.700502 0.600560
 28 3 5.026680 5.138758 4.939142 -0.149669 -0.995353 0.707365
 29 3 6.573776 3.277137 3.418853 0.302255 0.425993 -0.051011
 30 3 8.351156 4.937993 5.042295 -0.076364 0.234840 -0.661901
 31 3 0.009708 6.751489 3.257107 0.031236 -1.066668 0.139003
 32 3 1.630890 8.279070 4.844617 0.622009 0.818372 0.805690
 33 2 3.356925 6.680731 3.327824 -0.423582 -0.123457 -0.451768
 34 2 4.967510 8.176744 4.948904 0.326393 0.754099 -0.113560
 35 3 6.620354 6.574397 3.311184 0.319395 0.641452 0.116084
 36 3 8.358686 8.506900 5.008427 -0.464695 -1.221105 -1.089343
 37 3 0.025755 -0.007445 6.462748 0.065975 0.399533 1.694211
 38 2 1.661005 1.669679 8.564605 0.040267 -0.451281 -1.452573
 39 1 3.308076 0.030155 6.651154 -0.344778 -0.165029 0.059746
 40 2 4.874101 1.777939 8.393475 0.722067 -0.313417 -0.631308
 41 3 6.733728 -0.090939 6.794904 -0.783712 0.864321 -0.119134
 42 2 8.178096 1.722342 8.537327 0.528736 -0.349564 -0.516506
 43 2 -0.099054 3.270683 6.664590 0.385538 -0.015676 0.138117
 44 1 1.613309 4.835902 8.325138 -0.244524 0.583545 -0.499200
 45 2 3.221082 3.374672 6.562683 0.314992 0.104691 0.525138
 46 3 5.145962 4.912643 8.286075 -0.949934 0.474000 -0.722251
 47 2 6.735977 3.204226 6.677371 -0.316686 0.807534 -0.041431
 48 2 8.448996 4.830220 8.336745 -0.758958 0.395089 -0.359680
 49 1 0.025988 6.732807 6.530930 -0.166722 -0.774091 0.611912
 50 3 1.531611 8.370475 8.347980 1.083362 0.156443 -0.788655
 51 1 3.352362 6.689270 6.586623 0.036913 -0.441687 0.383467
 52 1 5.014194 8.347588 8.246846 -0.254071 -0.710976 -0.217751
 53 3 6.841202 6.702008 6.535495 -0.808637 -0.101807 0.676837
 54 1 8.383937 8.220813 8.396990 0.544923 -0.221941 -0.976095
Energy
-564.698398580000
PlusStress: xx yy zz yz xz xy
0.014776 0.014122 0.014950 -0.000761 -0.001945 -0.000180
END_CFG
BEGIN_CFG
Size
54
SuperCell
9.983625 0.000000 0.000000
0.000000 9.983625 0.000000
0.000000 0.000000 9.983625
AtomData: id type cartes_x cartes_y cartes_z fx fy fz
  1 3 0.049671 -0.013826 0.064769 -0.920156 -0.136701 0.341488
  2 2 1.816240 1.640522 1.640524 -0.645019 0.024324 -0.423023
  3 2 3.485796 0.076743 -0.046947 -0.474188 -0.797722 0.409031
  4 1 5.046069 1.617596 1.617365 -0.113085 0.133440 -0.139878
  5 3 6.679946 -0.191328 -0.172492 -0.477976 0.568747 1.505849
  6 3 8.263459 1.562654 1.695362 -0.156629 -0.027719 -0.016536
  7 3 -0.090802 3.186645 0.146565 0.331885 0.633463 -0.346569
  8 3 1.641360 4.998565 1.521463 0.570643 0.075751 0.432956
  9 1 3.273437 3.338967 -0.115099 0.735958 -0.066767 1.101955
 10 1 5.029382 4.931749 1.634768 -0.784857 0.109021 0.163622
 11 2 6.595579 3.513103 -0.001350 0.432809 -1.077475 0.143717
 12 3 8.213916 5.074067 1.541853 1.075833 -0.546709 1.318267
 13 2 0.020886 6.459783 -0.132819 0.078850 1.097291 0.525368
 14 3 1.683624 8.393534 1.681074 0.004492 -0.642866 -0.717271
 15 1 3.316310 6.625640 -0.147852 -0.049105 0.099185 0.694516
 16 1 4.919828 8.273624 1.769650 0.721215 0.216545 -0.707549
 17 3 6.690112 6.479446 0.032408 -0.434589 1.195227 -0.805472
 18 3 8.281179 8.251995 1.725105 0.168540 0.487793 -0.249254
 19 2 0.103100 0.093128 3.243953 -0.477796 -0.535082 0.559698
 20 2 1.633016 1.697064 5.089367 0.218936 0.348003 -0.650033
 21 3 3.279958 -0.018566 3.217242 0.500975 0.236775 0.803071
 22 2 4.872192 1.745190 5.127437 0.268461 -0.530759 -0.196022
 23 3 6.648549 0.100353 3.364039 -0.031700 -0.283793 -0.078094
 24 2 8.255176 1.700077 5.145616 0.305439 -0.309374 -0.970146
 25 1 -0.003583 3.484339 3.065900 -0.088679 -0.409009 1.105613
 26 1 1.746128 5.000517 4.961912 -0.550767 -0.020503 -0.447806
 27 2 3.337051 3.129118 3.305908 0.059925 0.826263 0.396110
 28 2 5.027524 5.139602 4.939985 -0.062367 -0.506129 0.500226
 29 2 6.574901 3.277699 3.419415 0.043297 -0.210517 -0.408757
 30 2 8.352563 4.938836 5.043139 -0.070592 0.027353 -0.217246
 31 3 0.009708 6.752614 3.257670 0.350794 -0.721907 0.177457
 32 1 1.631171 8.280477 4.845461 0.388493 0.699918 0.388616
 33 2 3.357487 6.681856 3.328386 -0.424637 -0.062725 -0.368104
 34 2 4.968354 8.178150 4.949748 0.525908 0.587240 0.159040
 35 1 6.621479 6.575522 3.311746 0.006800 0.517789 0.060131
 36 3 8.360093 8.508306 5.009270 -0.390367 -0.597745 -0.884928
 37 2 0.025755 -0.007445 6.463873 0.203459 -0.099461 1.065405
 38 2 1.661286 1.669961 8.566012 0.137617 -0.217093 -1.341649
 39 2 3.308639 0.030155 6.652279 -0.445047 -0.371069 0.267688
 40 2 4.874945 1.778220 8.394881 0.439312 -0.240291 -0.935469
 41 2 6.734853 -0.090939 6.796029 -0.360039 0.391957 0.023432
 42 1 8.179502 1.722623 8.538733 0.680130 -0.744614 -0.944712
 43 3 -0.099054 3.271245 6.665715 0.741812 -0.188114 0.466576
 44 1 1.613590 4.836746 8.326544 0.011850 0.477086 -0.731651
 45 3 3.221645 3.375234 6.563808 0.408544 -0.045907 0.534087
 46 3 5.146806 4.913487 8.287481 -1.161422 0.492893 -0.921344
 47 3 6.737102 3.204789 6.678496 -0.436290 0.856064 0.245927
 48 3 8.450402 4.831064 8.338151 -1.154638 0.878255 -0.742193
 49 3 0.025988 6.733932 6.532055 -0.201427 -0.479291 0.681527
 50 1 1.531892 8.371882 8.349386 0.948436 0.067603 -0.428179
 51 1 3.352924 6.690395 6.587748 -0.157138 -0.224739 0.173557
 52 2 5.015038 8.348995 8.248252 -0.045950 -0.843493 -0.304250
 53 3 6.842327 6.703133 6.536620 -0.421818 0.040056 0.621665
 54 1 8.385343 8.222219 8.398396 0.175865 -0.150468 -0.890459
Energy
-527.389461870000
PlusStress: xx yy zz yz xz xy
0.025642 0.024252 0.025232 0.000346 -0.003073 -0.000030
END_CFG
BEGIN_CFG
Size
54
SuperCell
9.985312 0.000000 0.000000
0.000000 9.985312 0.000000
0.000000 0.000000 9.985312
AtomData: id type cartes_x cartes_y cartes_z fx fy fz
  1 2 0.049671 -0.013826 0.064769 -0.575240 0.175545 0.460663
  2 3 1.816522 1.640803 1.640805 -0.672582 0.044198 -0.479280
  3 2 3.486359 0.076743 -0.046947 -0.533054 -0.796420 0.252317
  4 2 5.046912 1.617877 1.617646 -0.036604 0.134022 -0.127639
  5 1 6.681071 -0.191328 -0.172492 -0.327588 0.392722 1.456755
  6 1 8.264865 1.562936 1.695643 -0.363897 -0.054985 0.075921
  7 1 -0.090802 3.187207 0.146565 0.302404 0.527377 -0.133111
  8 3 1.641641 4.999409 1.521744 0.548016 0.020623 0.174988
  9 1 3.273999 3.339530 -0.115099 0.698534 0.283259 0.939088
 10 2 5.030226 4.932592 1.635049 -0.441702 0.077937 0.189556
 11 2 6.596704 3.513665 -0.001350 0.354213 -0.589204 0.047791
 12 3 8.215323 5.074911 1.542134 0.521296 -0.164777 1.117859
 13 2 0.020886 6.460908 -0.132819 -0.015150 0.898291 0.359346
 14 2 1.683905 8.394940 1.681356 0.304304 -0.491019 -0.416921