BEGIN_CFG
Size
54
SuperCell
9.990000 0.000000 0.000000
0.000000 9.990000 0.000000
0.000000 0.000000 9.990000
AtomData: id type cartes_x cartes_y cartes_z fx fy fz
  1 2 0.049671 -0.013826 0.064769 -0.541363 0.312792 0.442347
  2 2 1.817303 1.641585 1.641586 -0.391055 0.146909 -0.499158
  3 2 3.487921 0.076743 -0.046947 -0.329077 -0.572373 0.132442
  4 2 5.049256 1.618658 1.618427 0.260227 0.148274 -0.097414
  5 2 6.684196 -0.191328 -0.172492 -0.346182 0.153921 0.441028
  6 2 8.268771 1.563717 1.696425 -0.457395 0.042826 -0.294771
  7 2 -0.090802 3.188770 0.146565 0.331489 0.218731 0.239654
  8 2 1.642422 5.001753 1.522525 0.317973 -0.092703 0.006419
  9 2 3.275562 3.341092 -0.115099 0.551399 0.344586 0.426148
 10 2 5.032570 4.934936 1.635831 -0.443840 -0.022041 0.249480
 11 2 6.599829 3.515228 -0.001350 0.170762 -0.276578 0.010333
 12 2 8.219229 5.077254 1.542916 0.399225 -0.052455 0.638595
 13 2 0.020886 6.464033 -0.132819 0.212784 0.673204 0.252920
 14 2 1.684686 8.398847 1.682137 0.280273 -0.452216 -0.317190
 15 2 3.318435 6.629890 -0.147852 -0.073481 -0.149176 -0.022984
 16 2 4.923016 8.278936 1.770712 0.296007 0.142050 -0.407047
 17 2 6.694362 6.483696 0.032408 -0.287042 0.431432 -0.252888
 18 2 8.286492 8.257308 1.726168 0.042287 0.222947 -0.336348
 19 2 0.103100 0.093128 3.246078 -0.203646 -0.309544 0.223924
 20 2 1.634079 1.698126 5.092555 0.213996 0.348864 -0.581649
 21 2 3.282083 -0.018566 3.219367 0.288700 0.272118 0.611205
 22 2 4.875379 1.746253 5.130624 0.119322 -0.355145 0.032168
 23 2 6.652799 0.100353 3.366164 -0.292298 0.095609 0.228079
 24 2 8.260488 1.701140 5.148804 0.304784 -0.318551 -0.806570
 25 2 -0.003583 3.486464 3.068025 -0.018925 -0.182179 0.449105
 26 2 1.747190 5.003705 4.965099 -0.532763 -0.059300 -0.304448
 27 2 3.339176 3.131243 3.308033 0.162506 0.433603 0.353125
 28 2 5.030711 5.142789 4.943173 -0.128107 -0.388124 0.248353
 29 2 6.579151 3.279824 3.421540 0.009190 -0.131239 -0.110166
 30 2 8.357875 4.942024 5.046327 0.047767 -0.285690 -0.235493
 31 2 0.009708 6.756864 3.259795 -0.165484 -0.535468 0.235974
 32 2 1.632234 8.285789 4.848649 0.094919 0.176124 -0.002263
 33 2 3.359612 6.686106 3.330511 -0.154395 -0.012669 -0.145525
 34 2 4.971541 8.183463 4.952935 0.380664 0.368157 0.164700
 35 2 6.625729 6.579772 3.313871 0.156663 0.103576 0.111731
 36 2 8.365405 8.513619 5.012458 0.020319 -0.113317 -0.552285
 37 2 0.025755 -0.007445 6.468123 0.210630 0.042484 0.774384
 38 2 1.662349 1.671023 8.571324 0.005838 -0.221396 -0.851992
 39 2 3.310764 0.030155 6.656529 -0.314909 -0.309315 0.287436
 40 2 4.878132 1.779282 8.400193 0.600976 -0.162294 -0.571008
 41 2 6.739103 -0.090939 6.800279 -0.288293 0.456344 -0.018369
 42 2 8.184815 1.723686 8.544046 0.299353 -0.198798 -0.150817
 43 2 -0.099054 3.273370 6.669965 0.179079 -0.274067 0.211563
 44 2 1.614652 4.839934 8.331856 -0.307710 0.166124 -0.099404
 45 2 3.223770 3.377359 6.568058 0.207505 0.117020 0.443968
 46 2 5.149993 4.916675 8.292794 -0.534328 0.303537 -0.371372
 47 2 6.741352 3.206914 6.682746 -0.008866 0.327899 0.110480
 48 2 8.455714 4.834252 8.343463 -0.445245 0.267005 -0.322875
 49 2 0.025988 6.738182 6.536305 -0.137106 -0.209321 0.284715
 50 2 1.532954 8.377194 8.354698 0.195696 0.043643 -0.070818
 51 2 3.355049 6.694645 6.591998 -0.290975 -0.166650 0.313975
 52 2 5.018225 8.354307 8.253565 -0.028516 -0.535594 -0.279813
 53 2 6.846577 6.707383 6.540870 -0.102851 0.127123 0.002903
 54 2 8.390655 8.227532 8.403708 0.463523 -0.100703 -0.224489
Energy
-410.283188060000
PlusStress: xx yy zz yz xz xy
0.044717 0.046233 0.045007 0.000017 -0.000835 0.000094
END_CFG
BEGIN_CFG
Size
54
SuperCell
9.990000 0.000000 0.000000
0.000000 9.990000 0.000000
0.000000 0.000000 24.325000
AtomData: id type cartes_x cartes_y cartes_z fx fy fz
  1 2 1.714671 1.651174 8.064769 0.164321 0.087034 0.339645
  2 2 5.147303 1.641585 7.976586 -0.635818 0.098530 0.412637
  3 2 8.482921 1.741743 7.953053 -0.511437 -0.485027 0.756115
  4 2 1.719256 4.948658 7.953427 -0.295008 -0.044888 1.086416
  5 2 5.019196 4.803672 7.827508 -0.007417 0.331327 1.309100
  6 2 8.268771 4.893717 8.031425 0.246149 0.276439 0.685232
  7 2 1.574198 8.183770 8.146565 0.348567 0.187058 0.657662
  8 2 4.972422 8.331753 7.857525 0.069105 0.016121 1.576029
  9 2 8.270562 8.336092 7.884901 -0.059475 -0.148837 1.449904
 10 2 0.037570 -0.060064 9.635831 -0.331121 0.294480 -0.308486
 11 2 3.269829 0.185228 9.663650 0.767502 -0.396632 -0.625493
 12 2 6.554229 0.082254 9.542916 0.225067 -0.275978 -0.184006
 13 2 0.020886 3.134033 9.532181 -0.032254 0.742390 0.338930
 14 2 3.349686 3.403847 9.682137 0.079639 0.128113 -0.398780
 15 2 6.648435 3.299890 9.517148 0.147880 0.010559 0.393197
 16 2 -0.071984 6.613936 9.770712 -0.023229 0.155943 -0.772218
 17 2 3.364362 6.483696 9.697408 -0.014494 0.061393 -0.602721
 18 2 6.621492 6.592308 9.726168 0.008662 -0.030948 -1.098024
 19 2 1.768100 1.758128 11.246078 -0.358011 -0.506069 0.344468
 20 2 4.964079 1.698126 11.427555 0.292009 -0.358023 -0.307994
 21 2 8.277083 1.646434 11.219367 -0.287289 0.234298 0.182436
 22 2 1.545379 5.076253 11.465624 0.563550 -0.664591 -0.540117
 23 2 4.987799 5.095353 11.366164 0.354757 -0.204493 0.293595
 24 2 8.260488 5.031140 11.483804 -0.106414 0.013907 -0.855631
 25 2 1.661417 8.481464 11.068025 0.174556 -0.761097 0.696228
 26 2 5.077190 8.333705 11.300099 -0.406873 -0.026767 0.037082
 27 2 8.334176 8.126243 11.308033 -0.151744 0.833398 0.172390
 28 2 0.035711 0.147789 12.943173 -0.098185 -0.246124 -0.267099
 29 2 3.249151 -0.050176 13.086540 0.089765 -0.045471 -0.282688
 30 2 6.692875 -0.052976 13.046327 -0.119502 -0.102941 -0.160151
 31 2 0.009708 3.426864 12.924795 -0.407893 -0.379511 0.553503
 32 2 3.297234 3.290789 12.848649 0.383196 0.730217 0.531953
 33 2 6.689612 3.356106 12.995511 -0.186926 -0.243615 0.458999
 34 2 -0.023459 6.518463 12.952935 -0.224671 0.428663 0.448643
 35 2 3.295729 6.579772 12.978871 -0.113568 0.442139 0.103101
 36 2 6.700405 6.848619 13.012458 -0.366221 -0.533960 -0.049851
 37 2 1.690755 1.657555 14.468123 0.085671 0.105536 1.023760
 38 2 4.992349 1.671023 14.906324 -0.189388 -0.022631 -0.582970
 39 2 8.305764 1.695155 14.656529 0.268255 -0.348230 0.153130
 40 2 1.548132 5.109282 14.735193 0.538538 -0.068351 -0.472260
 41 2 5.074103 4.904061 14.800279 -0.077113 0.235884 -0.536967
 42 2 8.184815 5.053686 14.879046 0.481602 -0.040486 -1.038976
 43 2 1.565946 8.268370 14.669965 0.410237 -0.007514 0.112423
 44 2 4.944652 8.169934 14.666856 0.530637 0.372342 0.129317
 45 2 8.218770 8.372359 14.568058 0.895166 -0.054842 0.816234
 46 2 0.154993 -0.078325 16.292794 -0.386423 0.161134 -1.230660
 47 2 3.411352 -0.123086 16.347746 -0.205707 0.184580 -1.166737
 48 2 6.790714 -0.160748 16.343463 -0.346340 0.311736 -0.989428
 49 2 0.025988 3.408182 16.201305 -0.066491 -0.280530 -0.563680
 50 2 3.197954 3.382194 16.354698 0.185071 -0.127695 -0.911518
 51 2 6.685049 3.364645 16.256998 0.010675 -0.442976 0.038023
 52 2 0.023225 6.689307 16.253565 -0.343575 0.180032 -0.207659
 53 2 3.516577 6.707383 16.205870 -0.725032 -0.332883 -0.269044
 54 2 6.725655 6.562532 16.403708 -0.242959 0.557859 -0.676995
Energy
-387.919516000000
PlusStress: xx yy zz yz xz xy
0.032900 0.034017 0.021980 0.000178 0.000556 0.000234
Feature label surf
END_CFG
BEGIN_CFG
Size
54
SuperCell
9.986000 0.000000 0.000000
0.000000 9.986000 0.000000
0.000000 0.000000 9.986000
AtomData: id type cartes_x cartes_y cartes_z fx fy fz
  1 2 0.049671 -0.013826 0.064769 -0.330063 0.036402 0.187576
  2 2 1.816636 1.640918 1.640920 -0.509575 0.152410 -0.190308
  3 2 3.486588 0.076743 -0.046947 -0.491168 -0.715712 0.326325
  4 2 5.047256 1.617992 1.617760 0.066882 0.224957 -0.234408
  5 1 6.681530 -0.191328 -0.172492 -0.345138 0.505520 0.809938
  6 1 8.265438 1.563050 1.695758 -0.246421 -0.010924 -0.322183
  7 1 -0.090802 3.187436 0.146565 0.176981 0.340828 -0.105484
  8 2 1.641756 4.999753 1.521859 0.255986 -0.215975 0.087620
  9 1 3.274228 3.339759 -0.115099 0.753428 0.211483 0.836696
 10 2 5.030570 4.932936 1.635164 -0.491832 -0.023903 0.026450
 11 2 6.597163 3.513894 -0.001350 0.249594 -0.410648 0.057755
 12 2 8.215896 5.075254 1.542249 0.603351 -0.061660 0.746180
 13 2 0.020886 6.461366 -0.132819 0.323416 0.951632 0.198858
 14 2 1.684019 8.395513 1.681470 0.162012 -0.597448 -0.421307
 15 2 3.317102 6.627223 -0.147852 -0.124147 0.205169 -0.012238
 16 1 4.921016 8.275603 1.770046 0.397424 0.178243 -0.799078
 17 1 6.691695 6.481029 0.032408 -0.396851 0.460989 -0.176127
 18 2 8.283158 8.253974 1.725501 0.219165 0.129411 -0.291279
 19 1 0.103100 0.093128 3.244745 -0.569952 -0.306858 0.689033
 20 2 1.633412 1.697460 5.090555 0.249149 0.292920 -0.642373
 21 2 3.280749 -0.018566 3.218033 0.445829 0.142917 0.631688
 22 2 4.873379 1.745586 5.128624 0.008785 -0.405678 0.074387
 23 2 6.650132 0.100353 3.364830 -0.192262 -0.072025 0.169889
 24 1 8.257155 1.700473 5.146804 0.514796 -0.230059 -0.928718
 25 1 -0.003583 3.485131 3.066692 -0.025962 -0.310682 1.104385
 26 1 1.746524 5.001705 4.963099 -0.734359 -0.196113 -0.443939
 27 2 3.337843 3.129910 3.306699 0.105888 0.661672 0.436784
 28 1 5.028711 5.140789 4.941173 0.008462 -0.917958 0.291466
 29 2 6.576484 3.278491 3.420207 0.083136 -0.153169 -0.133915
 30 2 8.354542 4.940024 5.044327 0.024083 0.058002 -0.282181
 31 1 0.009708 6.754198 3.258461 -0.013508 -0.701442 0.241855
 32 1 1.631567 8.282456 4.846649 -0.008734 0.536916 0.115821
 33 2 3.358279 6.683439 3.329178 -0.043112 0.070406 -0.035695
 34 1 4.969541 8.180130 4.950935 0.581881 0.918032 0.323061
 35 2 6.623062 6.577106 3.312538 -0.129962 0.298574 0.093464
 36 2 8.362072 8.510285 5.010458 -0.088964 -0.503532 -0.664621
 37 2 0.025755 -0.007445 6.465456 0.166207 -0.065977 1.023293
 38 1 1.661682 1.670356 8.567991 -0.033371 -0.126522 -1.524013
 39 1 3.309431 0.030155 6.653862 -0.314918 -0.642059 0.277679
 40 2 4.876132 1.778616 8.396860 0.540143 -0.228960 -0.695855
 41 2 6.736437 -0.090939 6.797613 -0.454026 0.546841 -0.084178
 42 2 8.181482 1.723019 8.540712 0.344967 -0.228659 -0.477934
 43 1 -0.099054 3.272037 6.667298 0.326394 -0.149189 0.323057
 44 2 1.613986 4.837934 8.328523 -0.263544 0.189862 -0.338616
 45 1 3.222436 3.376026 6.565391 0.538915 0.213096 0.336601
 46 2 5.147993 4.914675 8.289461 -0.656331 0.329722 -0.242903
 47 2 6.738685 3.205580 6.680079 -0.183239 0.363557 0.062516
 48 2 8.452381 4.832252 8.340130 -0.583813 0.282145 -0.482653
 49 2 0.025988 6.735516 6.533638 0.085697 -0.177993 0.409472
 50 1 1.532288 8.373861 8.351365 0.366588 -0.111537 -0.230402
 51 2 3.353716 6.691978 6.589331 -0.336107 -0.114893 0.156055
 52 2 5.016225 8.350974 8.250232 0.143453 -0.533666 -0.076425
 53 1 6.843911 6.704717 6.538203 -0.425817 0.080518 0.165485
 54 2 8.387322 8.224198 8.400375 0.250562 -0.168982 -0.366554
Energy
-459.478960320000
PlusStress: xx yy zz yz xz xy
0.037161 0.034495 0.035762 0.000246 -0.001426 0.000284
END_CFG
BEGIN_CFG
Size
54
SuperCell
9.986000 0.000000 0.000000
0.000000 9.986000 0.000000
0.000000 0.000000 24.321667
AtomData: id type cartes_x cartes_y cartes_z fx fy fz
  1 1 1.714005 1.650507 8.064769 0.162013 0.194463 0.603665
  2 2 5.145303 1.640918 7.976586 -0.687222 0.111745 0.177450
  3 1 8.479588 1.741077 7.953053 -0.315022 -0.339720 0.993547
  4 2 1.718589 4.946658 7.953427 -0.152891 -0.114052 0.886007
  5 1 5.017196 4.801672 7.827508 0.124505 0.188028 1.932052
  6 1 8.265438 4.891717 8.031425 0.115275 0.012418 0.790145
  7 2 1.573531 8.180436 8.146565 0.472618 0.177508 0.701670
  8 2 4.970422 8.328419 7.857525 0.086870 -0.164751 1.595938
  9 2 8.267228 8.332759 7.884901 -0.076631 -0.144065 1.327800
 10 2 0.037570 -0.060064 9.635164 -0.395211 0.301217 -0.377165
 11 2 3.268496 0.185228 9.662984 0.656594 -0.498012 -0.860979
 12 2 6.551562 0.082254 9.542249 0.391382 -0.650759 -0.175507
 13 2 0.020886 3.132700 9.531515 0.045113 1.063953 0.393230
 14 2 3.348353 3.402513 9.681470 -0.148260 -0.034663 -0.429421
 15 1 6.645769 3.298556 9.516481 0.052399 0.394514 0.347702
 16 2 -0.071984 6.611269 9.770046 -0.244972 -0.102023 -0.852653
 17 1 3.363028 6.481029 9.696742 -0.187717 0.616579 -1.199794
 18 2 6.618825 6.589641 9.725501 0.207744 0.319794 -0.993047
 19 2 1.767433 1.757461 11.244745 -0.298333 -0.724347 0.087830
 20 2 4.962079 1.697460 11.426221 0.161458 -0.300983 -0.421292
 21 2 8.273749 1.645767 11.218033 -0.251830 0.137182 -0.026307
 22 1 1.544713 5.074253 11.464291 1.275970 -0.740685 -0.937492
 23 2 4.985799 5.093353 11.364830 0.123311 -0.509705 -0.042054
 24 1 8.257155 5.029140 11.482470 -0.288060 -0.167213 -1.493629
 25 2 1.660751 8.478131 11.066692 0.154592 -0.899867 0.891714
 26 1 5.075190 8.330371 11.298766 -0.717603 0.084228 0.067005
 27 2 8.330843 8.122910 11.306699 -0.117196 1.084014 0.128241
 28 2 0.035711 0.147789 12.941173 -0.203056 -0.249497 -0.148551
 29 1 3.247817 -0.050176 13.084540 0.496685 0.199268 -0.457579
 30 2 6.690208 -0.052976 13.044327 -0.318860 0.061255 0.069001
 31 2 0.009708 3.425531 12.922795 -0.560722 -0.318127 0.692505
 32 1 3.295900 3.289456 12.846649 0.294269 0.717976 1.109930
 33 2 6.686945 3.354772 12.993511 -0.220197 -0.190228 0.894348
 34 2 -0.023459 6.515796 12.950935 -0.380826 0.575021 0.679077
 35 1 3.294395 6.577106 12.976871 0.128284 0.680114 0.465577
 36 2 6.697738 6.845952 13.010458 -0.478705 -0.886059 0.084000
 37 1 1.690088 1.656889 14.465456 -0.243681 0.133126 1.577391
 38 1 4.990349 1.670356 14.903658 -0.004745 -0.517529 -0.433616
 39 2 8.302431 1.694488 14.653862 0.158923 -0.570696 0.282315
 40 2 1.547466 5.107282 14.732527 0.698849 -0.239300 -0.460159
 41 1 5.072103 4.902061 14.797613 -1.113457 0.497356 -0.665530
 42 1 8.181482 5.051686 14.876379 1.262596 -0.089430 -0.834619
 43 2 1.565280 8.265037 14.667298 0.619923 0.137381 0.064861
 44 2 4.942652 8.166600 14.664190 0.484412 0.752454 0.041076
 45 2 8.215436 8.369026 14.565391 0.930870 0.235009 0.955958
 46 1 0.154993 -0.078325 16.289461 -0.506112 0.191115 -1.638387
 47 2 3.410018 -0.123086 16.344413 -0.122212 0.271018 -1.114202
 48 1 6.788048 -0.160748 16.340130 -0.219023 0.207021 -1.467708
 49 2 0.025988 3.406849 16.197972 0.107795 -0.472398 -0.549977
 50 2 3.196621 3.380861 16.351365 0.236976 -0.329108 -1.057579
 51 2 6.682383 3.363311 16.253664 -0.010241 -0.491523 -0.139181
 52 2 0.023225 6.686641 16.250232 -0.342598 0.286243 -0.107944
 53 2 3.515244 6.704717 16.202536 -0.613819 -0.486336 -0.171112
 54 1 6.722989 6.559865 16.400375 -0.230224 0.601078 -0.784554
Energy
-431.427561690000
PlusStress: xx yy zz yz xz xy
0.031501 0.032461 0.022126 0.000455 0.000214 0.000542
Feature label surf
END_CFG
BEGIN_CFG
Size
54
SuperCell
9.982000 0.000000 0.000000
0.000000 9.982000 0.000000
0.000000 0.000000 9.982000
AtomData: id type cartes_x cartes_y cartes_z fx fy fz
  1 1 0.049671 -0.013826 0.064769 -0.737905 0.101086 0.122614
  2 2 1.815970 1.640251 1.640253 -0.524600 -0.130364 -0.322415
  3 1 3.485255 0.076743 -0.046947 -0.878618 -1.003021 0.528281
  4 1 5.045256 1.617325 1.617094 -0.111327 0.131462 0.264539
  5 1 6.678863 -0.191328 -0.172492 -0.240682 0.440353 1.567207
  6 2 8.262105 1.562384 1.695091 -0.196418 0.029518 -0.188222
  7 2 -0.090802 3.186103 0.146565 0.330830 0.455907 -0.023199
  8 1 1.641089 4.997753 1.521192 0.449748 0.090246 0.259904
  9 1 3.272895 3.338426 -0.115099 0.463772 0.334705 1.226143
 10 1 5.028570 4.930936 1.634497 -0.719180 0.198881 0.168879
 11 1 6.594496 3.512561 -0.001350 0.479681 -1.884895 0.372593
 12 2 8.212562 5.073254 1.541582 0.770209 -0.236265 0.675688
 13 1 0.020886 6.458700 -0.132819 0.051176 1.116449 0.634550
 14 2 1.683353 8.392180 1.680803 0.092400 -0.481491 -0.418211
 15 1 3.315769 6.624556 -0.147852 0.204373 -0.055810 0.360075
 16 1 4.919016 8.272269 1.769379 0.374895 0.233971 -0.963904
 17 1 6.689028 6.478363 0.032408 -0.501722 1.526138 -0.305498
 18 1 8.279825 8.250641 1.724834 0.498895 0.275573 -0.620735
 19 1 0.103100 0.093128 3.243412 -0.635823 -0.148127 0.738705
 20 1 1.632745 1.696793 5.088555 0.468270 -0.284459 -1.228297
 21 1 3.279416 -0.018566 3.216700 0.479651 0.052383 1.009076
 22 2 4.871379 1.744919 5.126624 0.331523 -0.644161 -0.303741
 23 1 6.647466 0.100353 3.363497 -0.063314 -0.460743 0.261997
 24 1 8.253821 1.699806 5.144804 0.255219 -0.206142 -1.227546
 25 1 -0.003583 3.483798 3.065359 -0.123023 -0.424986 1.241460
 26 1 1.745857 4.999705 4.961099 -0.573590 0.235081 -0.447913
 27 1 3.336509 3.128576 3.305366 0.131788 1.404593 0.285627
 28 1 5.026711 5.138789 4.939173 -0.101104 -0.980683 0.249332
 29 2 6.573817 3.277158 3.418874 0.187544 0.230873 -0.136365
 30 1 8.351208 4.938024 5.042327 0.038914 0.212885 -0.573058
 31 1 0.009708 6.751531 3.257128 -0.136213 -0.708823 0.268389
 32 2 1.630900 8.279123 4.844649 0.301491 0.411981 0.007636
 33 2 3.356945 6.680772 3.327845 -0.077515 -0.250414 -0.287932
 34 1 4.967541 8.176796 4.948935 0.199855 1.041056 0.272695
 35 2 6.620395 6.574439 3.311205 0.130782 0.341051 0.301468
 36 1 8.358738 8.506952 5.008458 0.055295 -1.066133 -0.846269
 37 1 0.025755 -0.007445 6.462790 -0.146289 0.391191 1.668625
 38 1 1.661015 1.669690 8.564658 -0.177135 -0.133822 -1.747175
 39 1 3.308097 0.030155 6.651195 -0.171088 -0.397020 0.174042
 40 1 4.874132 1.777949 8.393527 0.794925 -0.717538 -1.298025
 41 1 6.733770 -0.090939 6.794946 -0.775765 0.453375 -0.333222
 42 1 8.178148 1.722352 8.537379 0.798606 -0.980757 -0.564220
 43 2 -0.099054 3.270704 6.664632 0.479302 -0.051663 0.350306
 44 2 1.613319 4.835934 8.325190 -0.133289 0.449725 -0.425925
 45 1 3.221103 3.374693 6.562724 0.397827 0.147010 0.694950
 46 1 5.145993 4.912675 8.286127 -1.181587 0.773156 -0.599592
 47 1 6.736018 3.204247 6.677413 -0.601874 1.290722 0.028762
 48 1 8.449048 4.830252 8.336797 -0.495982 0.807156 -0.532174
 49 1 0.025988 6.732849 6.530972 -0.278224 -0.783694 0.533115
 50 1 1.531621 8.370527 8.348032 1.120817 -0.144145 -0.532040
 51 2 3.352383 6.689311 6.586664 -0.137289 -0.202512 0.233468
 52 2 5.014225 8.347641 8.246898 -0.072787 -0.466690 -0.034927
 53 2 6.841244 6.702050 6.535536 -0.287688 -0.137631 0.251543
 54 1 8.383989 8.220865 8.397042 0.192243 -0.194538 -0.791065
Energy
-504.740995190000
PlusStress: xx yy zz yz xz xy
0.013692 0.012450 0.016520 -0.001086 -0.001642 -0.001137
END_CFG
BEGIN_CFG
Size
54
SuperCell
9.982000 0.000000 0.000000
0.000000 9.982000 0.000000
0.000000 0.000000 24.318333
AtomData: id type cartes_x cartes_y cartes_z fx fy fz
  1 1 1.713338 1.649840 8.064769 0.189340 0.163043 0.202827
  2 2 5.143303 1.640251 7.976586 -0.639990 0.056007 0.243528
  3 1 8.476255 1.740410 7.953053 -0.498948 -0.619243 0.551486
  4 2 1.717923 4.944658 7.953427 -0.204334 -0.071473 0.802965
  5 1 5.015196 4.799672 7.827508 0.135303 0.299226 1.737562
  6 1 8.262105 4.889717 8.031425 -0.004872 0.286527 0.875752
  7 1 1.572864 8.177103 8.146565 0.337142 0.081350 0.649303
  8 1 4.968422 8.325086 7.857525 0.414811 -0.107131 1.933982
  9 1 8.263895 8.329426 7.884901 -0.307591 -0.253102 1.648595
 10 2 0.037570 -0.060064 9.634497 -0.696393 0.233832 -0.603890
 11 1 3.267163 0.185228 9.662317 1.234972 -1.385457 -1.107405
 12 2 6.548896 0.082254 9.541582 0.674488 -0.791277 -0.024429
 13 1 0.020886 3.131366 9.530848 -0.143375 1.620904 0.283073
 14 1 3.347019 3.401180 9.680803 0.131447 0.327132 -0.972969
 15 1 6.643102 3.297223 9.515814 -0.144679 0.114917 0.478082
 16 2 -0.071984 6.608603 9.769379 0.237495 0.125010 -1.057595
 17 2 3.361695 6.478363 9.696075 -0.217006 0.949905 -0.711841
 18 1 6.616158 6.586974 9.724834 -0.039793 0.655074 -1.591922
 19 1 1.766767 1.756795 11.243412 -1.143750 -0.846738 0.264925
 20 1 4.960079 1.696793 11.424888 0.607959 -0.257516 -0.967871
 21 1 8.270416 1.645101 11.216700 0.254742 0.295959 0.246364
 22 1 1.544046 5.072253 11.462957 0.837693 -0.853477 -1.682066
 23 1 4.983799 5.091353 11.363497 0.426379 -0.825113 -0.337647
 24 2 8.253821 5.027140 11.481137 0.010589 -0.122942 -1.329405
 25 1 1.660084 8.474798 11.065359 -0.146563 -1.311692 1.323878
 26 1 5.073190 8.327038 11.297433 -0.682644 0.160053 -0.496719
 27 2 8.327509 8.119576 11.305366 -0.098656 1.170466 0.076274
 28 1 0.035711 0.147789 12.939173 -0.019513 -0.595080 -0.254271
 29 2 3.246484 -0.050176 13.082540 0.414557 0.160927 -0.152607
 30 1 6.687542 -0.052976 13.042327 -0.673666 0.168178 0.052431
 31 1 0.009708 3.424198 12.920795 -0.611104 -0.874262 1.271785
 32 1 3.294567 3.288123 12.844649 0.521459 0.711826 1.878239
 33 1 6.684279 3.353439 12.991511 -0.592758 -0.385172 0.984535
 34 1 -0.023459 6.513130 12.948935 -0.506033 1.253230 0.918821
 35 1 3.293062 6.574439 12.974871 0.341467 1.119524 0.569535
 36 2 6.695072 6.843285 13.008458 -0.518410 -1.104454 0.122107
 37 2 1.689422 1.656222 14.462790 -0.343459 0.300273 1.379811
 38 1 4.988349 1.669690 14.900991 -0.221390 -0.504972 -0.377936
 39 2 8.299097 1.693821 14.651195 0.468433 -0.203268 0.230115
 40 2 1.546799 5.105282 14.729860 0.512795 -0.580984 -0.341348
 41 1 5.070103 4.900061 14.794946 -0.740868 0.308088 -0.478235
 42 2 8.178148 5.049686 14.873712 0.962521 -0.261307 -1.114112
 43 2 1.564613 8.261704 14.664632 0.428548 0.193570 -0.082208
 44 1 4.940652 8.163267 14.661523 0.572608 1.383412 0.406497
 45 2 8.212103 8.365693 14.562724 1.067205 -0.035696 0.929211
 46 2 0.154993 -0.078325 16.286127 -0.474230 0.256276 -1.034332
 47 1 3.408685 -0.123086 16.341079 0.151799 0.146333 -1.552554
 48 1 6.785381 -0.160748 16.336797 -0.467767 0.338287 -1.183711
 49 1 0.025988 3.405516 16.194638 0.174682 -0.367500 -0.684019
 50 1 3.195288 3.379527 16.348032 0.113548 -0.238368 -1.296784
 51 2 6.679716 3.361978 16.250331 0.099245 -0.528258 0.118501
 52 2 0.023225 6.683974 16.246898 -0.346413 0.183231 -0.073753
 53 1 3.513911 6.702050 16.199203 -0.585905 -0.614660 -0.090894
 54 2 6.720322 6.557198 16.397042 -0.251120 0.676582 -0.579662
Energy
-465.125303120000
PlusStress: xx yy zz yz xz xy
0.029050 0.027633 0.018369 0.000189 0.000400 -0.000211
Feature label surf
END_CFG
BEGIN_CFG
Size
54
SuperCell
9.978000 0.000000 0.000000
0.000000 9.978000 0.000000
0.000000 0.000000 9.978000
AtomData: id type cartes_x cartes_y cartes_z fx fy fz
  1 1 0.049671 -0.013826 0.064769 -0.752689 -0.210037 0.034414
  2 1 1.815303 1.639585 1.639586 -1.021494 0.006848 -0.060952
  3 1 3.483921 0.076743 -0.046947 -0.994928 -1.144918 0.545619
  4 1 5.043256 1.616658 1.616427 -0.060616 0.228519 0.094489
  5 1 6.676196 -0.191328 -0.172492 -0.315551 0.599412 1.815649
  6 1 8.258771 1.561717 1.694425 -0.121547 0.273454 0.051351
  7 1 -0.090802 3.184770 0.146565 0.483579 0.571703 -0.595006
  8 1 1.640422 4.995753 1.520525 0.761053 0.186385 0.582364
  9 1 3.271562 3.337092 -0.115099 0.697490 0.225012 1.487140
 10 1 5.026570 4.928936 1.633831 -1.152538 0.168943 0.219172
 11 1 6.591829 3.511228 -0.001350 0.378211 -2.278201 0.330892
 12 1 8.209229 5.071254 1.540916 0.990559 -0.691212 1.425663
 13 1 0.020886 6.456033 -0.132819 0.113083 1.506566 0.807240
 14 1 1.682686 8.388847 1.680137 0.082921 -1.064369 -1.079544
 15 1 3.314435 6.621890 -0.147852 0.155180 0.139591 0.540538
 16 1 4.917016 8.268936 1.768712 0.750012 0.034001 -0.987852
 17 1 6.686362 6.475696 0.032408 -0.542505 1.773714 -0.715157
 18 1 8.276492 8.247308 1.724168 0.349138 0.313583 -0.451674
 19 1 0.103100 0.093128 3.242078 -0.877113 -0.226730 0.974523
 20 1 1.632079 1.696126 5.086555 0.083280 -0.078614 -1.138771
 21 1 3.278083 -0.018566 3.215367 0.686485 0.298080 1.403157
 22 1 4.869379 1.744253 5.124624 0.674668 -1.121734 -0.721951
 23 1 6.644799 0.100353 3.362164 -0.181598 -0.759223 0.319902
 24 1 8.250488 1.699140 5.142804 0.480706 -0.224083 -1.292617
 25 1 -0.003583 3.482464 3.064025 -0.151750 -0.541250 1.779459
 26 1 1.745190 4.997705 4.959099 -0.646094 0.266253 -0.641633
 27 1 3.335176 3.127243 3.304033 -0.113767 1.658814 0.237959
 28 1 5.024711 5.136789 4.937173 -0.012505 -1.512855 0.422425
 29 1 6.571151 3.275824 3.417540 0.411087 0.347437 -0.332406
 30 1 8.347875 4.936024 5.040327 0.013286 0.466263 -0.736843
 31 1 0.009708 6.748864 3.255795 -0.259201 -0.751700 0.227955
 32 1 1.630234 8.275789 4.842649 0.654551 0.689755 0.583011
 33 1 3.355612 6.678106 3.326511 -0.596841 -0.421163 -0.835490
 34 1 4.965541 8.173463 4.946935 0.366730 1.508458 0.074974
 35 1 6.617729 6.571772 3.309871 0.612571 0.771346 0.189101
 36 1 8.355405 8.503619 5.006458 -0.333731 -1.231944 -1.051525
 37 1 0.025755 -0.007445 6.460123 -0.089531 0.242134 2.010781
 38 1 1.660349 1.669023 8.561324 -0.364543 -0.456754 -2.308627
 39 1 3.306764 0.030155 6.648529 -0.230077 -0.311005 0.038523
 40 1 4.872132 1.777282 8.390193 0.921366 -0.566707 -1.020346
 41 1 6.731103 -0.090939 6.792279 -1.036310 0.772142 -0.474729
 42 1 8.174815 1.721686 8.534046 0.915660 -1.053408 -0.988888
 43 1 -0.099054 3.269370 6.661965 1.020098 0.149022 0.447035
 44 1 1.612652 4.833934 8.321856 0.026969 0.930793 -1.046570
 45 1 3.219770 3.373359 6.560058 0.654884 -0.015868 0.933765
 46 1 5.143993 4.910675 8.282794 -1.043909 0.832130 -0.859995
 47 1 6.733352 3.202914 6.674746 -1.119800 1.341479 0.316397
 48 1 8.445714 4.828252 8.333463 -0.964596 0.809375 -0.952197
 49 1 0.025988 6.730182 6.528305 0.007261 -0.758786 0.587484
 50 1 1.530954 8.367194 8.344698 1.188291 -0.076715 -0.710926
 51 1 3.351049 6.686645 6.583998 -0.069213 -0.184688 0.628044
 52 1 5.012225 8.344307 8.243565 -0.108206 -0.848218 -0.109043
 53 1 6.838577 6.699383 6.532870 -0.608152 -0.390398 0.858500
 54 1 8.380655 8.217532 8.393708 0.289684 -0.190634 -0.854784
Energy
-539.979515930000
PlusStress: xx yy zz yz xz xy
-0.012808 -0.014661 -0.010700 -0.001174 -0.001882 0.000044
END_CFG
BEGIN_CFG
Size
54
SuperCell
9.978000 0.000000 0.000000
0.000000 9.978000 0.000000
0.000000 0.000000 24.315000
AtomData: id type cartes_x cartes_y cartes_z fx fy fz
  1 1 1.712671 1.649174 8.064769 0.210370 0.186871 0.222367
  2 1 5.141303 1.639585 7.976586 -0.390558 0.113573 0.252727
  3 1 8.472921 1.739743 7.953053 -0.432151 -0.571492 0.369826
  4 1 1.717256 4.942658 7.953427 -0.046741 0.010539 1.202998
  5 1 5.013196 4.797672 7.827508 -0.074742 0.202833 1.447629
  6 1 8.258771 4.887717 8.031425 0.008909 0.372334 0.517268
  7 1 1.572198 8.173770 8.146565 0.320795 -0.141615 0.492903
  8 1 4.966422 8.321753 7.857525 0.371745 -0.098745 1.958439
  9 1 8.260562 8.326092 7.884901 -0.334860 -0.282507 1.714592
 10 1 0.037570 -0.060064 9.633831 -1.086030 0.510602 -1.313825
 11 1 3.265829 0.185228 9.661650 1.364831 -1.429586 -1.190090
 12 1 6.546229 0.082254 9.540916 0.823899 -1.272505 -0.148223
 13 1 0.020886 3.130033 9.530181 -0.104582 2.082283 0.434831
 14 1 3.345686 3.399847 9.680137 -0.023539 -0.081373 -1.066562
 15 1 6.640435 3.295890 9.515148 -0.070151 0.332735 0.790148
 16 1 -0.071984 6.605936 9.768712 0.223889 -0.461885 -1.686090
 17 1 3.360362 6.475696 9.695408 -0.303738 1.651534 -1.137236
 18 1 6.613492 6.584308 9.724168 0.088989 0.575838 -1.857422
 19 1 1.766100 1.756128 11.242078 -1.240058 -0.856629 -0.136133
 20 1 4.958079 1.696126 11.423555 0.561071 -0.386091 -1.197032
 21 1 8.267083 1.644434 11.215367 0.276338 0.108755 -0.038015
 22 1 1.543379 5.070253 11.461624 1.272103 -0.962729 -2.379192
 23 1 4.981799 5.089353 11.362164 0.278937 -0.920001 -0.442135
 24 1 8.250488 5.025140 11.479804 0.075791 -0.856551 -2.138436
 25 1 1.659417 8.471464 11.064025 0.087270 -1.600526 1.877231
 26 1 5.071190 8.323705 11.296099 -1.398470 0.271195 -0.578920
 27 1 8.324176 8.116243 11.304033 0.050009 2.337077 -0.648347
 28 1 0.035711 0.147789 12.937173 -0.632295 -0.857139 0.101249
 29 1 3.245151 -0.050176 13.080540 0.881373 0.313570 -0.255247
 30 1 6.684875 -0.052976 13.040327 -0.615904 0.939520 0.143164
 31 1 0.009708 3.422864 12.918795 -0.778766 -0.935981 1.357776
 32 1 3.293234 3.286789 12.842649 0.432421 0.947533 2.297819
 33 1 6.681612 3.352106 12.989511 -0.668159 -0.475032 1.162413
 34 1 -0.023459 6.510463 12.946935 -0.313064 2.010728 1.619834
 35 1 3.291729 6.571772 12.972871 -0.018994 0.951801 0.910424
 36 1 6.692405 6.840619 13.006458 -1.156451 -2.247208 0.533642
 37 1 1.688755 1.655555 14.460123 -0.206275 0.410728 2.355277
 38 1 4.986349 1.669023 14.898324 -0.223881 -0.470560 -0.578247
 39 1 8.295764 1.693155 14.648529 0.402762 -0.176152 0.485034
 40 1 1.546132 5.103282 14.727193 1.151388 -1.382826 0.063418
 41 1 5.068103 4.898061 14.792279 -1.295259 0.306646 -0.555323
 42 1 8.174815 5.047686 14.871046 1.422387 -0.178360 -1.367254
 43 1 1.563946 8.258370 14.661965 0.693350 0.662708 -0.085769
 44 1 4.938652 8.159934 14.658856 0.575586 1.716474 0.438286
 45 1 8.208770 8.362359 14.560058 1.542634 -0.084000 1.632099
 46 1 0.154993 -0.078325 16.282794 -0.367256 0.261732 -1.358531
 47 1 3.407352 -0.123086 16.337746 -0.133374 0.000208 -1.169530
 48 1 6.782714 -0.160748 16.333463 -0.187742 0.063783 -1.010261
 49 1 0.025988 3.404182 16.191305 0.289470 -0.511175 -0.642394
 50 1 3.193954 3.378194 16.344698 -0.045297 -0.230545 -1.410990
 51 1 6.677049 3.360645 16.246998 -0.056384 -0.703985 0.102661
 52 1 0.023225 6.681307 16.243565 -0.359890 0.543227 -0.040515
 53 1 3.512577 6.699383 16.195870 -0.426815 -0.394335 0.316944
 54 1 6.717655 6.554532 16.393708 -0.414892 0.684706 -0.369285
Energy
-509.166892330000
PlusStress: xx yy zz yz xz xy
0.015798 0.015667 0.011010 0.000155 -0.000206 -0.000088
Feature label surf
END_CFG
BEGIN_CFG
Size
54
SuperCell
9.827000 0.000000 0.000000
0.000000 9.827000 0.000000
0.000000 0.000000 9.827000
AtomData: id type cartes_x cartes_y cartes_z fx fy fz
  1 0 0.049671 -0.013826 0.064769 0.453319 -0.229126 -0.039291
  2 0 1.790136 1.614418 1.614420 -0.351288 0.446740 0.532390
  3 2 3.433588 0.076743 -0.046947 -1.456804 -0.904446 0.654466
  4 2 4.967756 1.591492 1.591260 0.052280 0.686797 -0.068816
  5 2 6.575530 -0.191328 -0.172492 -0.408150 0.439283 1.156202
  6 0 8.132938 1.536550 1.669258 0.009237 0.252650 -0.537737
  7 2 -0.090802 3.134436 0.146565 0.848971 -0.080296 -0.004387
  8 2 1.615256 4.920253 1.495359 0.691132 -0.198191 0.385364
  9 2 3.221228 3.286759 -0.115099 -0.633422 -0.238212 0.266224
 10 2 4.951070 4.853436 1.608664 0.160311 -0.084343 0.020057
 11 0 6.491163 3.460894 -0.001350 0.264562 -1.487703 0.416690